% Model:              4band-PBC - demo.mph
% Version:            COMSOL 6.1.0.252
% Date:               Mar 16 2025, 15:13
% Table:              表格 17 - zakphase
% m                                               特征频率 (GHz)                                        电场，z 分量 (V/m), 点: (-0.02, -0.02)                  电场，z 分量 (V/m), 点: (-0.016, -0.02)                 电场，z 分量 (V/m), 点: (-0.012, -0.02)                 电场，z 分量 (V/m), 点: (-0.008, -0.02)                 电场，z 分量 (V/m), 点: (-0.004, -0.02)                 电场，z 分量 (V/m), 点: (0, -0.02)                      电场，z 分量 (V/m), 点: (0.004, -0.02)                  电场，z 分量 (V/m), 点: (0.008, -0.02)                  电场，z 分量 (V/m), 点: (0.012, -0.02)                  电场，z 分量 (V/m), 点: (0.016, -0.02)                  电场，z 分量 (V/m), 点: (0.02, -0.02)                   电场，z 分量 (V/m), 点: (-0.02, -0.016)                 电场，z 分量 (V/m), 点: (-0.016, -0.016)                电场，z 分量 (V/m), 点: (-0.012, -0.016)                电场，z 分量 (V/m), 点: (-0.008, -0.016)                电场，z 分量 (V/m), 点: (-0.004, -0.016)                电场，z 分量 (V/m), 点: (0, -0.016)                     电场，z 分量 (V/m), 点: (0.004, -0.016)                 电场，z 分量 (V/m), 点: (0.008, -0.016)                 电场，z 分量 (V/m), 点: (0.012, -0.016)                 电场，z 分量 (V/m), 点: (0.016, -0.016)                 电场，z 分量 (V/m), 点: (0.02, -0.016)                  电场，z 分量 (V/m), 点: (-0.02, -0.012)                 电场，z 分量 (V/m), 点: (-0.016, -0.012)                电场，z 分量 (V/m), 点: (-0.012, -0.012)                电场，z 分量 (V/m), 点: (-0.008, -0.012)                电场，z 分量 (V/m), 点: (-0.004, -0.012)                电场，z 分量 (V/m), 点: (0, -0.012)                     电场，z 分量 (V/m), 点: (0.004, -0.012)                 电场，z 分量 (V/m), 点: (0.008, -0.012)                 电场，z 分量 (V/m), 点: (0.012, -0.012)                 电场，z 分量 (V/m), 点: (0.016, -0.012)                 电场，z 分量 (V/m), 点: (0.02, -0.012)                  电场，z 分量 (V/m), 点: (-0.02, -0.008)                 电场，z 分量 (V/m), 点: (-0.016, -0.008)                电场，z 分量 (V/m), 点: (-0.012, -0.008)                电场，z 分量 (V/m), 点: (-0.008, -0.008)                电场，z 分量 (V/m), 点: (-0.004, -0.008)                电场，z 分量 (V/m), 点: (0, -0.008)                     电场，z 分量 (V/m), 点: (0.004, -0.008)                 电场，z 分量 (V/m), 点: (0.008, -0.008)                 电场，z 分量 (V/m), 点: (0.012, -0.008)                 电场，z 分量 (V/m), 点: (0.016, -0.008)                 电场，z 分量 (V/m), 点: (0.02, -0.008)                  电场，z 分量 (V/m), 点: (-0.02, -0.004)                 电场，z 分量 (V/m), 点: (-0.016, -0.004)                电场，z 分量 (V/m), 点: (-0.012, -0.004)                电场，z 分量 (V/m), 点: (-0.008, -0.004)                电场，z 分量 (V/m), 点: (-0.004, -0.004)                电场，z 分量 (V/m), 点: (0, -0.004)                     电场，z 分量 (V/m), 点: (0.004, -0.004)                 电场，z 分量 (V/m), 点: (0.008, -0.004)                 电场，z 分量 (V/m), 点: (0.012, -0.004)                 电场，z 分量 (V/m), 点: (0.016, -0.004)                 电场，z 分量 (V/m), 点: (0.02, -0.004)                  电场，z 分量 (V/m), 点: (-0.02, 0)                      电场，z 分量 (V/m), 点: (-0.016, 0)                     电场，z 分量 (V/m), 点: (-0.012, 0)                     电场，z 分量 (V/m), 点: (-0.008, 0)                     电场，z 分量 (V/m), 点: (-0.004, 0)                     电场，z 分量 (V/m), 点: (0, 0)                          电场，z 分量 (V/m), 点: (0.004, 0)                      电场，z 分量 (V/m), 点: (0.008, 0)                      电场，z 分量 (V/m), 点: (0.012, 0)                      电场，z 分量 (V/m), 点: (0.016, 0)                      电场，z 分量 (V/m), 点: (0.02, 0)                       电场，z 分量 (V/m), 点: (-0.02, 0.004)                  电场，z 分量 (V/m), 点: (-0.016, 0.004)                 电场，z 分量 (V/m), 点: (-0.012, 0.004)                 电场，z 分量 (V/m), 点: (-0.008, 0.004)                 电场，z 分量 (V/m), 点: (-0.004, 0.004)                 电场，z 分量 (V/m), 点: (0, 0.004)                      电场，z 分量 (V/m), 点: (0.004, 0.004)                  电场，z 分量 (V/m), 点: (0.008, 0.004)                  电场，z 分量 (V/m), 点: (0.012, 0.004)                  电场，z 分量 (V/m), 点: (0.016, 0.004)                  电场，z 分量 (V/m), 点: (0.02, 0.004)                   电场，z 分量 (V/m), 点: (-0.02, 0.008)                  电场，z 分量 (V/m), 点: (-0.016, 0.008)                 电场，z 分量 (V/m), 点: (-0.012, 0.008)                 电场，z 分量 (V/m), 点: (-0.008, 0.008)                 电场，z 分量 (V/m), 点: (-0.004, 0.008)                 电场，z 分量 (V/m), 点: (0, 0.008)                      电场，z 分量 (V/m), 点: (0.004, 0.008)                  电场，z 分量 (V/m), 点: (0.008, 0.008)                  电场，z 分量 (V/m), 点: (0.012, 0.008)                  电场，z 分量 (V/m), 点: (0.016, 0.008)                  电场，z 分量 (V/m), 点: (0.02, 0.008)                   电场，z 分量 (V/m), 点: (-0.02, 0.012)                  电场，z 分量 (V/m), 点: (-0.016, 0.012)                 电场，z 分量 (V/m), 点: (-0.012, 0.012)                 电场，z 分量 (V/m), 点: (-0.008, 0.012)                 电场，z 分量 (V/m), 点: (-0.004, 0.012)                 电场，z 分量 (V/m), 点: (0, 0.012)                      电场，z 分量 (V/m), 点: (0.004, 0.012)                  电场，z 分量 (V/m), 点: (0.008, 0.012)                  电场，z 分量 (V/m), 点: (0.012, 0.012)                  电场，z 分量 (V/m), 点: (0.016, 0.012)                  电场，z 分量 (V/m), 点: (0.02, 0.012)                   电场，z 分量 (V/m), 点: (-0.02, 0.016)                  电场，z 分量 (V/m), 点: (-0.016, 0.016)                 电场，z 分量 (V/m), 点: (-0.012, 0.016)                 电场，z 分量 (V/m), 点: (-0.008, 0.016)                 电场，z 分量 (V/m), 点: (-0.004, 0.016)                 电场，z 分量 (V/m), 点: (0, 0.016)                      电场，z 分量 (V/m), 点: (0.004, 0.016)                  电场，z 分量 (V/m), 点: (0.008, 0.016)                  电场，z 分量 (V/m), 点: (0.012, 0.016)                  电场，z 分量 (V/m), 点: (0.016, 0.016)                  电场，z 分量 (V/m), 点: (0.02, 0.016)                   电场，z 分量 (V/m), 点: (-0.02, 0.02)                   电场，z 分量 (V/m), 点: (-0.016, 0.02)                  电场，z 分量 (V/m), 点: (-0.012, 0.02)                  电场，z 分量 (V/m), 点: (-0.008, 0.02)                  电场，z 分量 (V/m), 点: (-0.004, 0.02)                  电场，z 分量 (V/m), 点: (0, 0.02)                       电场，z 分量 (V/m), 点: (0.004, 0.02)                   电场，z 分量 (V/m), 点: (0.008, 0.02)                   电场，z 分量 (V/m), 点: (0.012, 0.02)                   电场，z 分量 (V/m), 点: (0.016, 0.02)                   电场，z 分量 (V/m), 点: (0.02, 0.02)
-1                                                1.3804802070955147-0.0043184705784836625i         0.5378988603416552+0.021619330788197125i          0.5131949026993892+0.020549099785465617i          0.4396175307125872+0.01745610775677049i           0.3213169994140152+0.012667619283137886i          0.16942125564416693+0.006655332461801168i         -1.9880516945021897E-6-2.859864663104254E-7i      -0.16943205975093145-0.006655977130428692i        -0.3213402145188299-0.012668202350458999i         -0.43964053682482473-0.01745689276212341i         -0.5131776794264822-0.020549493483404634i         -0.5378988603416552-0.021619330788196812i         0.72463586271275+0.014328548224963931i            0.6945009170330912+0.013589233422795288i          0.5995472941421551+0.011497726796131097i          0.43973942329071286+0.008322068946724227i         0.23142465453114647+0.0043712267444569785i        2.009239009589589E-5+2.4174513105180376E-7i       -0.23143107696847287-0.004372276683638637i        -0.4396316606179875-0.00832441236641864i          -0.59953777910849-0.011499897946076795i           -0.6945170004078773-0.01359011559284001i          -0.7246358627127503-0.014328548224963534i         0.9593007555452021+0.008428293454740316i          0.9315127953486972+0.007882126806987955i          0.8211448486602009+0.006501120804601011i          0.601801489169948+0.004677478819159699i           0.31272533913001066+0.002479841356248204i         1.6558162591339548E-5+2.658627845747804E-7i       -0.3126224484767871-0.002480193931990748i         -0.6016910446821508-0.004677365992346728i         -0.8210367453061975-0.006501408645713439i         -0.9315468920403058-0.007882144103882553i         -0.9593007555452021-0.00842829345473975i          1.2259483630414467+0.0036857686650817074i         1.233905860383965+0.0030352830134562445i          1.161145043776567+0.0018190446998617104i          0.8214299146335987+0.0014257799546630585i         0.40884650318466326+9.033183760373966E-4i         -2.3967867960690472E-5-4.83041594118866E-7i       -0.4088018399201209-9.04612815054014E-4i          -0.8214230031853779-0.0014258974636680135i        -1.161140583435372-0.0018190418074955459i         -1.2339650400852384-0.0030348597153489225i        -1.225948363041447-0.003685768665081064i          1.4478552755185687+4.221850756322416E-4i          1.52650347291261-6.95110202891496E-4i             1.4960665294118458-0.002116340816577073i          1.0399069197446962-0.001208195031818536i          0.4904889448371968-2.1666003094278325E-4i         -3.601719063869163E-5+4.452904219139118E-7i       -0.4904519125250977+2.1619423267857336E-4i        -1.0399115389144467+0.001208238793896731i         -1.4960403440408285+0.0021161793267896367i        -1.5265037036923326+6.951769054776041E-4i         -1.447855275518568-4.2218507563143254E-4i         1.5264114315292683-7.092476035014005E-4i          1.5871029103475494-0.001723605059380128i          1.5806137940148113-0.0033225122105396835i         1.0845654374713658-0.001909513484495118i          0.5196914131885537-6.095507903002839E-4i          -9.823617818927044E-7+2.060719018196332E-8i       -0.5196649183622527+6.091278516385228E-4i         -1.0845842233263083+0.0019096161385522266i        -1.5806157297021215+0.003322514788087138i         -1.5870652157906453+0.0017233185629869187i        -1.5264114315292685+7.092476035022467E-4i         1.4478971401160248+4.219315270685631E-4i          1.526518117199478-6.95262721168695E-4i            1.496042601253201-0.0021159021617368507i          1.0399100007153612-0.0012082451538466398i         0.4904442073469212-2.1613373878142568E-4i         4.660297929162498E-5-5.700976775407333E-7i        -0.49051070311368206+2.1686319477433975E-4i       -1.0399126139875705+0.001208211062274462i         -1.4960145476163693+0.0021157445740656988i        -1.5265297136538356+6.952828840433943E-4i         -1.447897140116024-4.219315270677219E-4i          1.2260228493299181+0.0036856429618904642i         1.234006530144149+0.003034749892668283i           1.1611311874422754+0.001819150841236938i          0.8214544204556185+0.0014256866371317237i         0.40887385707499657+9.043085981157256E-4i         1.4526702038530556E-5+4.741512069697721E-7i       -0.4088465795796853-9.034260570734913E-4i         -0.8214468978755897-0.0014257420741944887i        -1.161127963746933-0.0018192117335861348i         -1.233988896575402-0.00303482726180046i           -1.2260228493299172-0.0036856429618897903i        0.9592459335090366+0.008428667335655384i          0.931646581423123+0.00788059875535689i            0.8212278472436263+0.006499854965493452i          0.6017014802428134+0.0046758708928139985i         0.3127589951219387+0.0024804947742242457i         -4.409113450324145E-6+2.5898176115680336E-7i      -0.31266134617842345-0.0024797666812017877i       -0.6017154914835979-0.0046779689461044814i        -0.8211622924925607-0.006500807107510842i         -0.9313158739736924-0.007883864919862595i         -0.9592459335090368-0.008428667335654816i         0.7246453218395759+0.014328454222059845i          0.6944686335865706+0.013590930277477768i          0.599466348469305+0.011500279080032743i           0.4395596395246399+0.00832406403223989i           0.23140602156271034+0.004372047518197422i         -2.0396732964514386E-5-1.446962750422786E-7i      -0.23145192642251625-0.004370877450994558i        -0.4396837007850218-0.008320628608331116i         -0.5996050708323818-0.011496560854858041i         -0.6945285830257885-0.013588727301343927i         -0.7246453218395758-0.014328454222059459i         0.5378982323080652+0.02161947831793264i           0.5131910204121789+0.02054929770481688i           0.43962630802494507+0.017456677945121374i         0.3213328963747449+0.012667970148276152i          0.16943356778075058+0.006655975729402771i         5.6084149399498285E-6+4.6262645925204373E-7i      -0.1694145579662097-0.0066552656758394136i        -0.3213072317519245-0.012667430660861147i         -0.4396205308176783-0.017455870720257644i         -0.5131888066079863-0.020549212799953066i         -0.5378982323080652-0.02161947831793238i
-1                                                1.6286854433461748-0.005238681652617643i          -1.8714612705460335E-6+5.564640459590664E-7i      0.18350089012550688+0.0023028948761403983i        0.3408529124803049+0.0047195064262253944i         0.45490771981963407+0.007090762720047614i         0.5212045124406163+0.008904458711220144i          0.5426017988074007+0.009589894031276388i          0.5212153309915594+0.008904259290515306i          0.45494328945829676+0.007090114635001793i         0.34086016414367987+0.004718458748531129i         0.18347277323144376+0.0023033199502624007i        1.8714612705460331E-6-5.564640459590675E-7i       4.1584452114307256E-5-1.226271371265442E-6i       0.2590515182429336-0.00307785684127909i           0.47228665277491655-0.005003420486497665i         0.6140520190232114-0.005385324345116672i          0.687180708536719-0.004883311459895196i           0.7089621349312406-0.0045686702757544405i         0.6871483283358787-0.0048818249421859975i         0.6138671174048856-0.005376174904113179i          0.4721941902736714-0.005001203804771319i          0.2590203086281742-0.003077488075921256i          -4.1584452114109666E-5+1.226271371263051E-6i      4.3785080609908094E-5-1.659739337850416E-6i       0.3774960070674361-0.00960853157404724i           0.674154194240001-0.01642738625625623i            0.8324505090339682-0.018632144445120465i          0.8893300626233671-0.018194118408717555i          0.9018784774647606-0.017752563777004477i          0.8890484011674116-0.01818610491440062i           0.8322990290147888-0.01862546260327143i           0.6740502885889543-0.01642184602855889i           0.37757730191672356-0.009610690616326696i         -4.3785080609908094E-5+1.6597393378504395E-6i     3.792752790900761E-5-5.38186780578275E-7i         0.5661425188634528-0.018565544553295142i          1.0293227146984978-0.033177675347156474i          1.1339879100384902-0.03393633176494379i           1.11095317585538-0.030691551196287727i            1.0994330679752227-0.02941459206377331i           1.1109590645204936-0.0306920124832638i            1.1339780327017028-0.03393598147864948i           1.0293120825608342-0.03317728557409458i           0.5661997461380675-0.018567683189978895i          -3.792752790898174E-5+5.381867805774429E-7i       7.1471044133380605E-6-2.85174690142239E-7i        0.7717511048881309-0.027922300771676182i          1.4033993175941537-0.05023675724295895i           1.4461084769743588-0.04859801562585098i           1.2913019766753437-0.04010942253187324i           1.25186447862417-0.03775251101703577i             1.291276061577996-0.04010836951755866i            1.4461129469703522-0.048598217606080935i          1.4034465845646416-0.050238523544424665i          0.7717385785569358-0.027921799733957083i          -7.147104413624536E-6+2.851746901524173E-7i       -5.988683659758429E-5+2.8195618690296315E-6i      0.8077755802506326-0.02970673161099263i           1.4929940275045284-0.05460268427856416i           1.498365284572991-0.051453874637520006i           1.3560996375339243-0.04344960735622681i           1.3088009422647353-0.040779381721020455i          1.356094432999432-0.04344941619113274i            1.4983983934381606-0.05145525808193113i           1.4929912174506885-0.054602588015888465i          0.8077350234148231-0.029705010452876268i          5.988683659746447E-5-2.819561869025342E-6i        -1.43056544836312E-4+6.540073702001236E-6i        0.7717601030083585-0.02792272619103323i           1.4033595489817707-0.050234724740936966i          1.446113476606519-0.04859823310764642i            1.291272165274674-0.040108225761881194i           1.2518762420406888-0.03775296197609677i           1.2913258525305982-0.04011037926786951i           1.4461151898303841-0.04859827797337161i           1.4034125382995855-0.05023673521593628i           0.7717748698331719-0.02792334398671474i           1.4305654483570825E-4-6.540073701979766E-6i       -4.383910244601821E-5+1.1385291733786676E-6i      0.566213229895482-0.018568290884672326i           1.0293002990956808-0.033176775316195645i          1.134024984816992-0.03393790177355656i            1.1110669265764899-0.03069653755026802i           1.099519013535915-0.029418065883122572i           1.1109742642532516-0.030692346280873695i          1.134011821618054-0.03393734183547692i            1.0292978061512834-0.033176635612263576i          0.5662085052559731-0.018568116645945057i          4.3839102446173775E-5-1.1385291733838284E-6i      -1.3770128094665264E-4+4.9384116464023094E-6i     0.37778110213677735-0.00961873214535337i          0.6743058292178715-0.016433425144863827i          0.8323596273313948-0.018629055951853605i          0.8893132640037508-0.018196043059665976i          0.9020091567667293-0.017756818031103697i          0.8891899831212624-0.01818977175704077i           0.8323197739874988-0.018626121341544576i          0.6741891373502918-0.016428609297944527i          0.37721651582493154-0.009598437102449038i         1.3770128094665264E-4-4.938411646402385E-6i       2.0056966036969246E-5-5.436930023609699E-7i       0.2589861581300534-0.003074441012720732i          0.4721183450721753-0.004996831036826036i          0.6137899926061412-0.005372072591687905i          0.6871123504050638-0.004880499404017475i          0.7089542621130897-0.004568964814659384i          0.6872196695613672-0.004886024175831109i          0.6140238963087986-0.00538342917838151i           0.47238222067497143-0.005007776763556303i         0.2590914819906549-0.0030798048547263524i         -2.005696603673804E-5+5.436930023582684E-7i       1.5225771176862526E-5-1.7247907667826516E-7i      0.1834909874753053+0.0023028857962525246i         0.34085258783820493+0.004719203896885003i         0.4549335874778296+0.007090406188834435i          0.5212177987179253+0.008904222866830003i          0.5426008389671689+0.009590066729338485i          0.521194533895707+0.008904908770032204i           0.4548939764653758+0.007091022182981778i          0.34086035519074875+0.004719120133407593i         0.18349324769099185+0.0023030536282576024i        -1.5225771176997948E-5+1.7247907667665683E-7i
-1                                                2.608055264109673-0.0061757552829919595i          0.8982983923853582+0.035689280684993885i          0.8604218248261083+0.03384987222914363i           0.742934981142195+0.0286248338525004i             0.5461288400726633+0.02069655748323479i           0.28848033865591705+0.010857483973882706i         -5.450861765310381E-6-3.6426584786750297E-7i      -0.28850156356929213-0.010858280993159804i        -0.5461856779147077-0.020696795971797566i         -0.7429573445682711-0.028625288911802743i         -0.8604074462160964-0.03385058297443928i          -0.8982983923853582-0.03568928068499337i          1.0736270804980041+0.02024014476252623i           1.0412405263741225+0.01895344434157604i           0.9174911343510427+0.015649836648367835i          0.6791169102609902+0.011171090942707552i          0.35633662102637903+0.00587445417042541i          -1.5741801253341126E-5+2.3905432777222976E-7i     -0.3563920808833598-0.005876471511617782i         -0.6789846565403195-0.01117716766509735i          -0.9174731666954999-0.01565497095127753i          -1.041396939178194-0.018952748424741497i          -1.0736270804980044-0.02024014476252561i          1.2501098288900696+0.006855750760328834i          1.2612472521524583+0.005474165059160439i          1.179066496580002+0.0030967462502813252i          0.8653647496533947+0.002072179057820389i          0.43518880278628375+0.0013562107410468938i        -1.78636007805294E-5+5.609070540666814E-7i        -0.4342989059533615-0.0013671949600747406i        -0.8651313034396422-0.0020739195975981364i        -1.1787703315238145-0.003100705569765586i         -1.261527211148346-0.005471497273442821i          -1.2501098288900696-0.006855750760328121i         1.304714107593586-0.0032121175331383933i          1.4862546489694526-0.006565819184590061i          1.7039989847253985-0.011875146229292864i          1.1005386161958988-0.006888514587864383i          0.4792263147417768-0.0021970621678175165i         5.624479364783408E-5-1.6859939242944727E-6i       -0.4787489691592597+0.002189062596712258i         -1.10051272942201+0.006888172666843404i           -1.703997701706764+0.011875399599811546i          -1.4864733505344314+0.006569054999002746i         -1.3047141075935855+0.0032121175331390737i        0.9295108721520476-0.005980999047127908i          1.2753080222162252-0.01146933112040283i           1.635836099012298-0.018400113771625044i           0.9995445922008012-0.010546951126326884i          0.3542406235423689-0.0029320635030387534i         -1.3915551612916563E-4+2.1874606118307116E-6i     -0.3540819489721088+0.002929516958444465i         -0.9995690650158999+0.010547572468002853i         -1.635823738288756+0.01840053493305842i           -1.275130297847646+0.011466727073730868i          -0.9295108721520455+0.005980999047128417i         7.729800903437364E-5-1.1560144307542948E-6i       -1.5072124539446466E-4+2.2505819447986655E-6i     -8.828659158375742E-6+1.8480943639800526E-7i      -8.459312674129887E-5+1.5022254700135771E-6i      1.1862158196613345E-4-1.947570728313395E-6i       -4.412751673873311E-5+6.92580937398992E-7i        2.95436393247658E-5-5.077864543483785E-7i         -5.359959979785861E-5+9.614629470666475E-7i       -1.7039987102859165E-5+3.042722515251364E-7i      -1.7557421888078888E-4+2.5362113575762746E-6i     -7.72980090324442E-5+1.1560144307391865E-6i       -0.9297770702117802+0.005984992172244894i         -1.2751715606343113+0.01146731291295067i          -1.6362065982212148+0.018404633389180608i         -0.9995508322851258+0.010547124657546559i         -0.35401685935040433+0.002928460449744189i        -1.5283503086793346E-4+2.3390160069428644E-6i     0.35432509444816895-0.002933431661460937i         0.9995886328412797-0.010547776556909477i          1.6361443989274138-0.018404509317241077i          1.2753851503710416-0.011470783641329366i          0.9297770702117815-0.005984992172245463i          -1.3051702023690819+0.0032175192830638617i        -1.4866970549794811+0.006571644960150868i         -1.7039271486147225+0.01187418424927683i          -1.1006399505066076+0.0068898941709050225i        -0.4789311952286833+0.0021913261307941116i        7.48602295882958E-5-1.9828949361585006E-6i        0.47921694006639604-0.0021969271441360455i        1.1006155226422316-0.006889688950796817i          1.7039324400096003-0.011874433103937878i          1.4866671524156898-0.006571495250345471i          1.3051702023690814-0.00321751928306456i           -1.249895760562765-0.006858589659079041i          -1.2617335195509167-0.005466826112768089i         -1.179369687343083-0.0030908208568055607i         -0.8648450647728706-0.0020748329184775366i        -0.43472933090489974-0.0013629897936496323i       8.878787930344245E-5-1.583282600580925E-6i        0.4347998614011396+0.0013608611524033585i         0.865167978889734+0.002075231095383278i           1.1791540885502174+0.0030949724274492163i         1.2604053277500433+0.005486601958564649i          1.249895760562765+0.006858589659078328i           -1.0736603583374347-0.020239528095564924i         -1.0413218721066007-0.018955213128177356i         -0.917263257959151-0.015656713123770434i          -0.6787986158868891-0.011178842816667632i         -0.35634362999593744-0.005876798124788251i        -4.485507815647771E-5+1.2714902959313048E-7i      0.35632357752703575+0.005873594897144696i         0.6789743481617347+0.011170076868837257i          0.9176353436013314+0.015646474977183515i          1.041299219101897+0.018951804384548552i           1.0736603583374347+0.02023952809556427i           -0.8982990092418347-0.035689557050870825i         -0.8604186166056638-0.033850433954645584i         -0.742944526650282-0.0286253871568053i            -0.546167309500894-0.02069651524051494i           -0.2884934030099926-0.01085794113389737i          4.1385465855625325E-6-1.0682705073685498E-7i      0.28848248042115193+0.010858031976962518i         0.5461103984022422+0.02069682151758644i           0.7429440934925913+0.028624498887369166i          0.8604190895234012+0.03385009808706293i           0.8982990092418347+0.03568955705087037i